
                                 *****************
                                 * O   R   C   A *
                                 *****************

                                            #,                                       
                                            ###                                      
                                            ####                                     
                                            #####                                    
                                            ######                                   
                                           ########,                                 
                                     ,,################,,,,,                         
                               ,,#################################,,                 
                          ,,##########################################,,             
                       ,#########################################, ''#####,          
                    ,#############################################,,   '####,        
                  ,##################################################,,,,####,       
                ,###########''''           ''''###############################       
              ,#####''   ,,,,##########,,,,          '''####'''          '####       
            ,##' ,,,,###########################,,,                        '##       
           ' ,,###''''                  '''############,,,                           
         ,,##''                                '''############,,,,        ,,,,,,###''
      ,#''                                            '''#######################'''  
     '                                                          ''''####''''         
             ,#######,   #######,   ,#######,      ##                                
            ,#'     '#,  ##    ##  ,#'     '#,    #''#        ,####,   ,####,        
            ##       ##  ##   ,#'  ##            #'  '#       #'       #'  '#        
            ##       ##  #######   ##           ,######,      #####,   #    #        
            '#,     ,#'  ##    ##  '#,     ,#' ,#      #,     #,   #   #,  ,#        
             '#######'   ##     ##  '#######'  #'      '#     '####' # '####'        



                #########################################################
                #                        -***-                          #
                #          Department of theory and spectroscopy        #
                #                                                       #
                #                      Frank Neese                      #
                #                                                       #
                #     Directorship, Architecture, Infrastructure        #
                #                    SHARK, DRIVERS                     #
                #        Core code/Algorithms in most modules           #
                #                                                       #
                #        Max Planck Institute fuer Kohlenforschung      #
                #                Kaiser Wilhelm Platz 1                 #
                #                 D-45470 Muelheim/Ruhr                 #
                #                      Germany                          #
                #                                                       #
                #                  All rights reserved                  #
                #                        -***-                          #
                #########################################################


                         Program Version 6.0.1  -  RELEASE   -


 With contributions from (in alphabetic order):
[Max-Planck-Institut fuer Kohlenforschung]                               
  Daniel Aravena         : Magnetic Suceptibility                        
  Michael Atanasov       : Ab Initio Ligand Field Theory (pilot matlab implementation)
  Alexander A. Auer      : GIAO ZORA, VPT2 properties, NMR spectrum      
  Ute Becker             : All parallelization in ORCA, NUMFREQ, NUMCALC 
  Giovanni Bistoni       : ED, misc. LED, open-shell LED, HFLD           
  Martin Brehm           : Molecular dynamics                            
  Dmytro Bykov           : pre 5.0 version of the SCF Hessian            
  Marcos Casanova-Páez   : Triplet and SCS-CIS(D). UHF-(DLPNO)-IP/EA/STEOM-CCSD. UHF-CVS-IP/STEOM-CCSD   
  Vijay G. Chilkuri      : MRCI spin determinant printing, contributions to CSF-ICE 
  Pauline Colinet        : FMM embedding                                 
  Dipayan Datta          : RHF DLPNO-CCSD density                        
  Achintya Kumar Dutta   : EOM-CC, STEOM-CC                              
  Nicolas Foglia         : Exact transition moments, OPA infrastructure, MCD improvements    
  Dmitry Ganyushin       : Spin-Orbit,Spin-Spin,Magnetic field MRCI      
  Miquel Garcia-Rates    : C-PCM and meta-GGA Hessian, CCSD/C-PCM, Gaussian charge scheme 
  Tiago L. C. Gouveia    : GS-ROHF, GS-ROCIS                             
  Yang Guo               : DLPNO-NEVPT2, F12-NEVPT2, CIM, IAO-localization        
  Andreas Hansen         : Spin unrestricted coupled pair/coupled cluster methods 
  Ingolf Harden          : AUTO-CI MPn and infrastructure                
  Benjamin Helmich-Paris : MC-RPA, TRAH-(SCF,CASSCF), AVAS, COSX integrals, SCF dyn. polar. 
  Lee Huntington         : MR-EOM, pCC                                   
  Robert Izsak           : Overlap fitted RIJCOSX, COSX-SCS-MP3, EOM     
  Riya Kayal             : Wick's Theorem for AUTO-CI, AUTO-CI UHF-CCSDT 
  Emily Kempfer          : AUTO-CI, RHF CISDT and CCSDT                  
  Christian Kollmar      : KDIIS, OOCD, Brueckner-CCSD(T), CCSD density, CASPT2, CASPT2-K, improved NEVPT2 
  Axel Koslowski         : Symmetry handling                             
  Simone Kossmann        : meta-GGA functionals, TD-DFT gradient, OOMP2, (MP2 Hessian; deprecated post 5.0) 
  Lucas Lang             : DCDCAS                                        
  Marvin Lechner         : AUTO-CI (C++ implementation), FIC-MRCC        
  Spencer Leger          : CASSCF response                               
  Dagmar Lenk            : GEPOL surface, SMD, ORCA-2-JSON               
  Dimitrios Liakos       : Extrapolation schemes; Compound Job, initial MDCI parallelization 
  Dimitrios Manganas     : Further ROCIS development; embedding schemes. LFT, Crystal Embedding 
  Dimitrios Pantazis     : SARC Basis sets                               
  Anastasios Papadopoulos: AUTO-CI, single reference methods and gradients 
  Taras Petrenko         : pre 6.0 DFT Hessian and TD-DFT gradient, (ASA, deprecated), ECA, 1-Electron XAS/XES, NRVS 
  Peter Pinski           : DLPNO-MP2, DLPNO-MP2 Gradient                 
  Christoph Reimann      : Effective Core Potentials                     
  Marius Retegan         : Local ZFS, SOC                                
  Christoph Riplinger    : Optimizer, TS searches, QM/MM, DLPNO-CCSD(T), (RO)-DLPNO pert. Triples 
  Michael Roemelt        : Original ROCIS implementation                 
  Masaaki Saitow         : Open-shell DLPNO-CCSD energy and density      
  Barbara Sandhoefer     : DKH picture change effects                    
  Kantharuban Sivalingam : CASSCF convergence/infrastructure, NEVPT2 and variants, FIC-MRCI 
  Bernardo de Souza      : ESD, SOC TD-DFT                               
  Georgi L. Stoychev     : AutoAux, RI-MP2 NMR, DLPNO-MP2 response, X2C  
  Van Anh Tran           : RI-MP2 g-tensors                              
  Willem Van den Heuvel  : Paramagnetic NMR                              
  Zikuan Wang            : NOTCH, Electric field optimization            
  Frank Wennmohs         : Technical directorship and infrastructure     
  Hang Xu                : AUTO-CI-Response properties                   
                                                                         
[FACCTs GmbH]                                                            
  Markus Bursch, Miquel Garcia-Rates, Christoph Riplinger, Bernardo de Souza, Georgi L. Stoychev 
                                                                 
  APM, Basis sets (HGBS, AHGBS, def-TZVP (Ac-Lr), def2-XVPD (La-Lu)), CI-OPT, improved COSX, DLPNO-Multilevel,           
  DOCKER, DRACO, updates on ESD, GOAT, IRC, LR-CPCM, MBIS, meta-GGA TD-DFT gradient, ML-optimized integration grids, 
  MM, NACMEs, nearIR, NEB, NEB-TS, NL-DFT gradient (VV10), 2- and 3-layer-ONIOM, interface openCOSMO-RS, QMMM,   
  Crystal-QMMM, SF, symmetry and pop. for TD-DFT, r2SCAN hybrids, SOLVATOR                                   
                                                                         
[Other institutions]                                                     
  V. Asgeirsson          : NEB                                           
  Christoph Bannwarth    : sTDA-DFT, sTD-DFT, PBEh-3c, B97-3c, D3        
  Sebastian Ehlert       : rSCAN, r2SCAN, r2SCAN-3c, D4, dhf basis sets  
  Marvin Friede          : D4 for Fr, Ra, Ac-Lr                          
  Lars Goerigk           : TD-DFT with DH, B97 family of functionals     
  Stefan Grimme          : VdW corrections, initial TS optimization, DFT functionals, gCP, sTDA/sTD-DF 
  Waldemar Hujo          : DFT-NL                                        
  H. Jonsson             : NEB                                           
  Holger Kruse           : gCP                                           
  Marcel Mueller         : wB97X-3c, vDZP basis set                      
  Hagen Neugebauer       : wr2SCAN                                       
  Tobias Risthaus        : range-separated hybrid DFT                    
  Lukas Wittmann         : regularized MP2, r2SCAN double-hybrids, wr2SCAN        
                                                                         
We gratefully acknowledge several colleagues who have allowed us to      
interface, adapt or use parts of their codes:                            
  Ed Valeev, F. Pavosevic, A. Kumar             : LibInt (2-el integral package), F12 methods 
  Garnet Chan, S. Sharma, J. Yang, R. Olivares  : DMRG                   
  Ulf Ekstrom                                   : XCFun DFT Library      
  Mihaly Kallay                                 : mrcc  (arbitrary order and MRCC methods)
  Frank Weinhold                                : gennbo (NPA and NBO analysis)           
  Simon Mueller                                 : openCOSMO-RS                            
  Christopher J. Cramer and Donald G. Truhlar   : smd solvation model                     
  S Lehtola, MJT Oliveira, MAL Marques          : LibXC Library                           
  Liviu Ungur et al                             : ANISO software                          


 Your calculation uses the libint2 library for the computation of 2-el integrals
 For citations please refer to: http://libint.valeyev.net

 Your ORCA version has been built with support for libXC version: 6.2.2
 For citations please refer to: https://libxc.gitlab.io

 This ORCA versions uses:
   CBLAS   interface :  Fast vector & matrix operations
   LAPACKE interface :  Fast linear algebra routines
   SCALAPACK package :  Parallel linear algebra routines
   Shared memory     :  Shared parallel matrices


================================================================================

----- Orbital basis set information -----
Your calculation utilizes the basis: 6-31G
   H-He, Li-Ne : W. J. Hehre, R. Ditchfield and J.A. Pople, J. Chem. Phys. 56, 2257 (1972).
                 Note: He and Ne are unpublished basis sets taken from the Gaussian program.
                 Note: Li and B from J. D. Dill and J. A. Pople, J. Chem. Phys. 62, 2921 (1975).
   Na - Ar     : M. M. Francl, W. J. Pietro, W. J. Hehre, J. S. Binkley, M. S. Gordon, 
                 D. J. DeFrees and J. A. Pople, J. Chem. Phys. 77, 3654 (1982).
   K - Zn      : V. A. Rassolov, J. A. Pople, M. A. Ratner, and T. L. Windus, J. Chem. Phys. 109, 1223 (1998).

================================================================================
                                        WARNINGS
                       Please study these warnings very carefully!
================================================================================

WARNING: Old DensityContainer found on disk!
         Will remove this file - 
         If you want to keep old densities, please start your calculation with a different basename. 


================================================================================
                                       INPUT FILE
================================================================================
NAME = orca_test_co_6-31G.inp
|  1> ! HF 6-31G
|  2> 
|  3> %output
|  4> 	Print[P_Overlap] = 1
|  5>         Print[P_Basis] = 2
|  6> 	Print[P_MOs] = 1
|  7> end
|  8> 
|  9> *xyz 0 1
| 10> C	0	0	0
| 11> O	0	0	1.128	
| 12> *
| 13> 
| 14>                          ****END OF INPUT****
================================================================================

                       ****************************
                       * Single Point Calculation *
                       ****************************

---------------------------------
CARTESIAN COORDINATES (ANGSTROEM)
---------------------------------
  C      0.000000    0.000000    0.000000
  O      0.000000    0.000000    1.128000

----------------------------
CARTESIAN COORDINATES (A.U.)
----------------------------
  NO LB      ZA    FRAG     MASS         X           Y           Z
   0 C     6.0000    0    12.011    0.000000    0.000000    0.000000
   1 O     8.0000    0    15.999    0.000000    0.000000    2.131611

--------------------------------
INTERNAL COORDINATES (ANGSTROEM)
--------------------------------
 C      0   0   0     0.000000000000     0.00000000     0.00000000
 O      1   0   0     1.128000000000     0.00000000     0.00000000

---------------------------
INTERNAL COORDINATES (A.U.)
---------------------------
 C      0   0   0     0.000000000000     0.00000000     0.00000000
 O      1   0   0     2.131611079063     0.00000000     0.00000000

---------------------
BASIS SET INFORMATION
---------------------
There are 2 groups of distinct atoms

 Group   1 Type C   : 10s4p contracted to 3s2p pattern {631/31}
 Group   2 Type O   : 10s4p contracted to 3s2p pattern {631/31}

Atom   0C    basis set group =>   1
Atom   1O    basis set group =>   2

-------------------------
BASIS SET IN INPUT FORMAT
-------------------------

 # Basis set for element : C 
 NewGTO C 
 S 6 
   1    3047.5249000000      0.0018347002
   2     457.3695100000      0.0140373012
   3     103.9486900000      0.0688426061
   4      29.2101550000      0.2321844206
   5       9.2866630000      0.4679413416
   6       3.1639270000      0.3623120322
 S 3 
   1       7.8682724000     -0.1193324086
   2       1.8812885000     -0.1608542116
   3       0.5442493000      1.1434564826
 P 3 
   1       7.8682724000      0.0689990956
   2       1.8812885000      0.3164239798
   3       0.5442493000      0.7443082524
 S 1 
   1       0.1687144000      1.0000000000
 P 1 
   1       0.1687144000      1.0000000000
  end;

 # Basis set for element : O 
 NewGTO O 
 S 6 
   1    5484.6717000000      0.0018310998
   2     825.2349500000      0.0139500985
   3     188.0469600000      0.0684450927
   4      52.9645000000      0.2327142753
   5      16.8975700000      0.4701929501
   6       5.7996353000      0.3585208619
 S 3 
   1      15.5396160000     -0.1107775038
   2       3.5999336000     -0.1480263051
   3       1.0137618000      1.1307670390
 P 3 
   1      15.5396160000      0.0708742995
   2       3.5999336000      0.3397527978
   3       1.0137618000      0.7271585953
 S 1 
   1       0.2700058000      1.0000000000
 P 1 
   1       0.2700058000      1.0000000000
  end;


Checking for AutoStart:
The File: orca_test_co_6-31G.gbw exists
Trying to determine its content:
     ... Fine, the file contains calculation information
     ... Fine, the calculation information was read
     ... Fine, the file contains a basis set
     ... Fine, the basis set was read
     ... Fine, the file contains a geometry
     ... Fine, the geometry was read
     ... Fine, the file contains a set of orbitals
     ... Fine, the orbitals can be read
     => possible old guess file was deleted
     => GBW file was renamed to GES file
     => GES file is set as startup file
     => Guess is set to MORead
     ... now leaving AutoStart

------------------------------------------------------------------------------
                             ORCA STARTUP CALCULATIONS
------------------------------------------------------------------------------
------------------------------------------------------------------------------
                   ___                                                        
                  /   \      - P O W E R E D   B Y -                         
                 /     \                                                     
                 |  |  |   _    _      __       _____    __    __             
                 |  |  |  | |  | |    /  \     |  _  \  |  |  /  |          
                  \  \/   | |  | |   /    \    | | | |  |  | /  /          
                 / \  \   | |__| |  /  /\  \   | |_| |  |  |/  /          
                |  |  |   |  __  | /  /__\  \  |    /   |      \           
                |  |  |   | |  | | |   __   |  |    \   |  |\   \          
                \     /   | |  | | |  |  |  |  | |\  \  |  | \   \       
                 \___/    |_|  |_| |__|  |__|  |_| \__\ |__|  \__/        
                                                                              
                      - O R C A' S   B I G   F R I E N D -                    
                                      &                                       
                       - I N T E G R A L  F E E D E R -                       
                                                                              
 v1 FN, 2020, v2 2021, v3 2022-2024                                           
------------------------------------------------------------------------------


----------------------
SHARK INTEGRAL PACKAGE
----------------------

Number of atoms                             ...      2
Number of basis functions                   ...     18
Number of shells                            ...     10
Maximum angular momentum                    ...      1
Integral batch strategy                     ... SHARK/LIBINT Hybrid
RI-J (if used) integral strategy            ... SPLIT-RIJ (Revised 2003 algorithm where possible)
Printlevel                                  ...      1
Contraction scheme used                     ... SEGMENTED contraction
Prescreening option                         ... SCHWARTZ
   Thresh                                   ... 1.000e-10
   Tcut                                     ... 1.000e-11
   Tpresel                                  ... 1.000e-11 
Coulomb Range Separation                    ... NOT USED
Exchange Range Separation                   ... NOT USED
Multipole approximations                    ... NOT USED
Finite Nucleus Model                        ... NOT USED
CABS basis                                  ... NOT available
Auxiliary Coulomb fitting basis             ... NOT available
Auxiliary J/K fitting basis                 ... NOT available
Auxiliary Correlation fitting basis         ... NOT available
Auxiliary 'external' fitting basis          ... NOT available

Checking pre-screening integrals            ... done (  0.0 sec) Dimension = 10
Check shell pair data                       ... done (  0.0 sec)
Shell pair information
Shell pair cut-off parameter TPreSel        ...   1.0e-11
Total number of shell pairs                 ...        55
Shell pairs after pre-screening             ...        55
Total number of primitive shell pairs       ...       448
Primitive shell pairs kept                  ...       408
          la=0 lb=0:     21 shell pairs
          la=1 lb=0:     24 shell pairs
          la=1 lb=1:     10 shell pairs

Calculating one electron integrals          ... done (  0.0 sec)
Calculating Nuclear repulsion               ... done (  0.0 sec) ENN=     22.518179076596 Eh

Diagonalization of the overlap matrix:
Smallest eigenvalue                        ... 2.188e-02
Time for diagonalization                   ...    0.000 sec
Threshold for overlap eigenvalues          ... 1.000e-07
Number of eigenvalues below threshold      ... 0
Time for construction of square roots      ...    0.000 sec
Total time needed                          ...    0.000 sec

-------------------
DFT GRID GENERATION
-------------------

General Integration Accuracy     IntAcc      ... 4.388
Radial Grid Type                 RadialGrid  ... OptM3 with GC (2021)
Angular Grid (max. ang.)         AngularGrid ... 4 (Lebedev-302)
Angular grid pruning method      GridPruning ... 4 (adaptive)
Weight generation scheme         WeightScheme... mBecke (2022)
Basis function cutoff            BFCut       ... 1.0000e-10
Integration weight cutoff        WCut        ... 1.0000e-14
Partially contracted basis set               ... off
Rotationally invariant grid construction     ... off
Angular grids for H and He will be reduced by one unit

Total number of grid points                  ...    12255
Total number of batches                      ...      193
Average number of points per batch           ...       63
Average number of grid points per atom       ...     6128
Initializing property integral containers    ... done (  0.0 sec)

SHARK setup successfully completed in   0.0 seconds

Maximum memory used throughout the entire STARTUP-calculation: 5.4 MB
-------------------------------------------------------------------------------
                                 ORCA GUESS
                   Start orbitals & Density for SCF / CASSCF
-------------------------------------------------------------------------------

------------
SCF SETTINGS
------------
Hamiltonian:
 Ab initio Hamiltonian  Method          .... Hartree-Fock(GTOs)


General Settings:
 Integral files         IntName         .... orca_test_co_6-31G
 Hartree-Fock type      HFTyp           .... RHF
 Total Charge           Charge          ....    0
 Multiplicity           Mult            ....    1
 Number of Electrons    NEL             ....   14
 Basis Dimension        Dim             ....   18
 Nuclear Repulsion      ENuc            ....     22.5181790766 Eh

Convergence Acceleration:
 AO-DIIS                CNVDIIS         .... on
   Start iteration      DIISMaxIt       ....    12
   Startup error        DIISStart       ....  0.200000
   # of expansion vecs  DIISMaxEq       ....     5
   Bias factor          DIISBfac        ....   1.050
   Max. coefficient     DIISMaxC        ....  10.000
 MO-DIIS                CNVKDIIS        .... off
 Trust-Rad. Augm. Hess. CNVTRAH         .... auto
   Auto Start mean grad. ratio tolernc. ....  1.125000
   Auto Start start iteration           ....     1
   Auto Start num. interpolation iter.  ....    10
   Max. Number of Micro iterations      ....    24
   Max. Number of Macro iterations      .... Maxiter - #DIIS iter
   Number of Davidson start vectors     ....     2
   Converg. threshold    (grad. norm)   ....   5.000e-05
   Grad. Scal. Fac. for Micro threshold ....   0.100
   Minimum threshold for Micro iter.    ....   1.000e-02
   NR start threshold (gradient norm)   ....   1.000e-04
   Initial trust radius                 ....   0.400
   Minimum AH scaling param. (alpha)    ....   1.000
   Maximum AH scaling param. (alpha)    .... 1000.000
   Quad. conv. algorithm                .... NR
   White noise on init. David. guess    .... on
   Maximum white noise                  ....   0.010
   Pseudo random numbers                .... off
   Inactive MOs                         .... canonical
   Orbital update algorithm             .... Taylor
   Preconditioner                       .... Diag
   Full preconditioner red. dimension   ....   250
 SOSCF                  CNVSOSCF        .... on
   Start iteration      SOSCFMaxIt      ....   150
   Startup grad/error   SOSCFStart      ....  0.003300
   Hessian update       SOSCFHessUp     .... L-BFGS
 Level Shifting         CNVShift        .... on
   Level shift para.    LevelShift      ....    0.2500
   Turn off err/grad.   ShiftErr        ....    0.0010
 Zerner damping         CNVZerner       .... off
 Static damping         CNVDamp         .... on
   Fraction old density DampFac         ....    0.7000
   Max. Damping (<1)    DampMax         ....    0.9800
   Min. Damping (>=0)   DampMin         ....    0.0000
   Turn off err/grad.   DampErr         ....    0.1000

SCF Procedure:
 Maximum # iterations   MaxIter         ....   125
 SCF integral mode      SCFMode         .... Direct
   Integral package                     .... SHARK and LIBINT hybrid scheme
 Reset frequency        DirectResetFreq ....    20
 Integral Threshold     Thresh          ....  1.000e-10 Eh
 Primitive CutOff       TCut            ....  1.000e-11 Eh

Convergence Tolerance:
 Convergence Check Mode ConvCheckMode   .... Total+1el-Energy
 Convergence forced     ConvForced      .... 0
 Energy Change          TolE            ....  1.000e-06 Eh
 1-El. energy change                    ....  1.000e-03 Eh
 Orbital Gradient       TolG            ....  5.000e-05
 Orbital Rotation angle TolX            ....  5.000e-05
 DIIS Error             TolErr          ....  1.000e-06

---------------------
INITIAL GUESS: MOREAD
---------------------
Guess MOs are being read from file: orca_test_co_6-31G.ges
Input Geometry matches current geometry (good)
Input basis set matches current basis set (good)
Occupation numbers will be reassigned to an Aufbau configuration
MOs were renormalized
MOs were reorthogonalized (Cholesky)
                      ------------------
                      INITIAL GUESS DONE (   0.0 sec)
                      ------------------
             **** ENERGY FILE WAS UPDATED (orca_test_co_6-31G.en.tmp) ****
Finished Guess after   0.0 sec
Maximum memory used throughout the entire GUESS-calculation: 2.1 MB

-------------------------------------------------------------------------------------------
                                      ORCA LEAN-SCF
                              memory conserving SCF solver
-------------------------------------------------------------------------------------------

--------------
OVERLAP MATRIX
--------------
                  0          1          2          3          4          5    
      0       1.000000   0.219059   0.000000   0.000000   0.000000   0.184261
      1       0.219059   1.000000   0.000000   0.000000   0.000000   0.812273
      2       0.000000   0.000000   1.000000   0.000000   0.000000   0.000000
      3       0.000000   0.000000   0.000000   1.000000   0.000000   0.000000
      4       0.000000   0.000000   0.000000   0.000000   1.000000   0.000000
      5       0.184261   0.812273   0.000000   0.000000   0.000000   1.000000
      6       0.000000   0.000000   0.569754   0.000000   0.000000   0.000000
      7       0.000000   0.000000   0.000000   0.569754   0.000000   0.000000
      8       0.000000   0.000000   0.000000   0.000000   0.569754   0.000000
      9       0.000012   0.030190   0.058980   0.000000   0.000000   0.056447
     10       0.014470   0.217801   0.330831   0.000000   0.000000   0.319073
     11      -0.032484  -0.241321  -0.307826   0.000000   0.000000  -0.151328
     12       0.000000   0.000000   0.000000   0.118458   0.000000   0.000000
     13       0.000000   0.000000   0.000000   0.000000   0.118458   0.000000
     14       0.079735   0.422633   0.356989   0.000000   0.000000   0.598769
     15      -0.166768  -0.607074  -0.227030   0.000000   0.000000  -0.510092
     16       0.000000   0.000000   0.000000   0.322300   0.000000   0.000000
     17       0.000000   0.000000   0.000000   0.000000   0.322300   0.000000
                  6          7          8          9         10         11    
      0       0.000000   0.000000   0.000000   0.000012   0.014470  -0.032484
      1       0.000000   0.000000   0.000000   0.030190   0.217801  -0.241321
      2       0.569754   0.000000   0.000000   0.058980   0.330831  -0.307826
      3       0.000000   0.569754   0.000000   0.000000   0.000000   0.000000
      4       0.000000   0.000000   0.569754   0.000000   0.000000   0.000000
      5       0.000000   0.000000   0.000000   0.056447   0.319073  -0.151328
      6       1.000000   0.000000   0.000000   0.096878   0.474645  -0.057174
      7       0.000000   1.000000   0.000000   0.000000   0.000000   0.000000
      8       0.000000   0.000000   1.000000   0.000000   0.000000   0.000000
      9       0.096878   0.000000   0.000000   1.000000   0.233690   0.000000
     10       0.474645   0.000000   0.000000   0.233690   1.000000   0.000000
     11      -0.057174   0.000000   0.000000   0.000000   0.000000   1.000000
     12       0.000000   0.172836   0.000000   0.000000   0.000000   0.000000
     13       0.000000   0.000000   0.172836   0.000000   0.000000   0.000000
     14       0.645296   0.000000   0.000000   0.167280   0.763641   0.000000
     15       0.032864   0.000000   0.000000   0.000000   0.000000   0.501521
     16       0.000000   0.582592   0.000000   0.000000   0.000000   0.000000
     17       0.000000   0.000000   0.582592   0.000000   0.000000   0.000000
                 12         13         14         15         16         17    
      0       0.000000   0.000000   0.079735  -0.166768   0.000000   0.000000
      1       0.000000   0.000000   0.422633  -0.607074   0.000000   0.000000
      2       0.000000   0.000000   0.356989  -0.227030   0.000000   0.000000
      3       0.118458   0.000000   0.000000   0.000000   0.322300   0.000000
      4       0.000000   0.118458   0.000000   0.000000   0.000000   0.322300
      5       0.000000   0.000000   0.598769  -0.510092   0.000000   0.000000
      6       0.000000   0.000000   0.645296   0.032864   0.000000   0.000000
      7       0.172836   0.000000   0.000000   0.000000   0.582592   0.000000
      8       0.000000   0.172836   0.000000   0.000000   0.000000   0.582592
      9       0.000000   0.000000   0.167280   0.000000   0.000000   0.000000
     10       0.000000   0.000000   0.763641   0.000000   0.000000   0.000000
     11       0.000000   0.000000   0.000000   0.501521   0.000000   0.000000
     12       1.000000   0.000000   0.000000   0.000000   0.501521   0.000000
     13       0.000000   1.000000   0.000000   0.000000   0.000000   0.501521
     14       0.000000   0.000000   1.000000   0.000000   0.000000   0.000000
     15       0.000000   0.000000   0.000000   1.000000   0.000000   0.000000
     16       0.501521   0.000000   0.000000   0.000000   1.000000   0.000000
     17       0.000000   0.501521   0.000000   0.000000   0.000000   1.000000
----------------------------------------D-I-I-S--------------------------------------------
Iteration    Energy (Eh)           Delta-E    RMSDP     MaxDP     DIISErr   Damp  Time(sec)
-------------------------------------------------------------------------------------------
               ***  Starting incremental Fock matrix formation  ***
                              *** Initializing SOSCF ***
---------------------------------------S-O-S-C-F--------------------------------------
Iteration    Energy (Eh)           Delta-E    RMSDP     MaxDP     MaxGrad    Time(sec)
--------------------------------------------------------------------------------------
    1    -112.6672045585847854     0.00e+00  1.16e-07  6.93e-07  1.08e-07     0.0
               *** Restarting incremental Fock matrix formation ***
    2    -112.6672045585856381    -8.53e-13  1.01e-07  5.15e-07  3.16e-07     0.0
                  *** Gradient check signals convergence ***

               *****************************************************
               *                     SUCCESS                       *
               *           SCF CONVERGED AFTER   2 CYCLES          *
               *****************************************************

             **** ENERGY FILE WAS UPDATED (orca_test_co_6-31G.en.tmp) ****

----------------
TOTAL SCF ENERGY
----------------

Total Energy       :       -112.66720455858564 Eh           -3065.83050 eV

Components:
Nuclear Repulsion  :         22.51817907659575 Eh             612.75080 eV
Electronic Energy  :       -135.18538363518138 Eh           -3678.58130 eV
One Electron Energy:       -197.81671450972146 Eh           -5382.86646 eV
Two Electron Energy:         62.63133087454008 Eh            1704.28516 eV

Virial components:
Potential Energy   :       -225.27870867180769 Eh           -6130.14531 eV
Kinetic Energy     :        112.61150411322204 Eh            3064.31481 eV
Virial Ratio       :          2.00049462482366

---------------
SCF CONVERGENCE
---------------

  Last Energy change         ...    8.5265e-13  Tolerance :   1.0000e-06
  Last MAX-Density change    ...    5.1479e-07  Tolerance :   1.0000e-05
  Last RMS-Density change    ...    1.0124e-07  Tolerance :   1.0000e-06
  Last DIIS Error            ...    9.4448e-07  Tolerance :   1.0000e-06
  Last Orbital Gradient      ...    3.1625e-07  Tolerance :   5.0000e-05
  Last Orbital Rotation      ...    1.6546e-07  Tolerance :   5.0000e-05


----------------
ORBITAL ENERGIES
----------------

  NO   OCC          E(Eh)            E(eV) 
   0   2.0000     -20.686209      -562.9004 
   1   2.0000     -11.396289      -310.1088 
   2   2.0000      -1.561547       -42.4919 
   3   2.0000      -0.797055       -21.6890 
   4   2.0000      -0.642599       -17.4860 
   5   2.0000      -0.642599       -17.4860 
   6   2.0000      -0.550729       -14.9861 
   7   0.0000       0.143269         3.8985 
   8   0.0000       0.143269         3.8985 
   9   0.0000       0.404731        11.0133 
  10   0.0000       0.728011        19.8102 
  11   0.0000       0.728011        19.8102 
  12   0.0000       0.771915        21.0049 
  13   0.0000       1.011325        27.5195 
  14   0.0000       1.206009        32.8172 
  15   0.0000       1.206009        32.8172 
  16   0.0000       1.212486        32.9934 
  17   0.0000       1.842925        50.1485 
*Only the first 10 virtual orbitals were printed.
------------------
MOLECULAR ORBITALS (RHF, ROHF)
------------------
                      0         1         2         3         4         5   
                 -20.68621 -11.39629  -1.56155  -0.79706  -0.64260  -0.64260
                   2.00000   2.00000   2.00000   2.00000   2.00000   2.00000
                  --------  --------  --------  --------  --------  --------
  0C   1s         0.000191  0.996337  0.113928  0.125643  0.000000 -0.000000
  0C   2s         0.000137  0.022010 -0.233765 -0.318278 -0.000000  0.000000
  0C   1pz       -0.000145  0.004682 -0.219095 -0.136658  0.000000  0.000000
  0C   1px       -0.000000 -0.000000 -0.000000 -0.000000 -0.275747 -0.112269
  0C   1py        0.000000 -0.000000  0.000000  0.000000  0.112269 -0.275747
  0C   3s         0.006199 -0.003889  0.005604 -0.181331 -0.000000  0.000000
  0C   2pz        0.003921 -0.000782  0.050525  0.031781  0.000000  0.000000
  0C   2px        0.000000 -0.000000 -0.000000 -0.000000 -0.107051 -0.043585
  0C   2py       -0.000000 -0.000000  0.000000  0.000000  0.043585 -0.107051
  1O   1s         0.995827 -0.000703  0.200149 -0.114284 -0.000000  0.000000
  1O   2s         0.022874  0.000635 -0.449319  0.264198  0.000000 -0.000000
  1O   1pz       -0.002504 -0.000675  0.194235  0.489316 -0.000000 -0.000000
  1O   1px       -0.000000  0.000000 -0.000000 -0.000000 -0.518267 -0.211010
  1O   1py        0.000000  0.000000 -0.000000 -0.000000  0.211010 -0.518267
  1O   3s        -0.012239 -0.001869 -0.399831  0.428027  0.000000 -0.000000
  1O   2pz        0.003887  0.002810  0.053693  0.217067 -0.000000  0.000000
  1O   2px        0.000000  0.000000  0.000000 -0.000000 -0.353095 -0.143761
  1O   2py       -0.000000  0.000000 -0.000000 -0.000000  0.143761 -0.353095
                      6         7         8         9        10        11   
                  -0.55073   0.14327   0.14327   0.40473   0.72801   0.72801
                   2.00000   0.00000   0.00000   0.00000   0.00000   0.00000
                  --------  --------  --------  --------  --------  --------
  0C   1s         0.141883 -0.000000 -0.000000 -0.036047 -0.000000  0.000000
  0C   2s        -0.256945  0.000000  0.000000 -0.144094  0.000000 -0.000000
  0C   1pz        0.444713  0.000000 -0.000000  0.086321 -0.000000  0.000000
  0C   1px       -0.000000 -0.459264 -0.044991  0.000000 -1.057021  0.233343
  0C   1py       -0.000000  0.044991 -0.459264  0.000000  0.233343  1.057021
  0C   3s        -0.655370 -0.000000  0.000000  2.047852 -0.000000  0.000000
  0C   2pz        0.111558 -0.000000 -0.000000  1.938844  0.000000 -0.000000
  0C   2px        0.000000 -0.736881 -0.072187 -0.000000  1.073218 -0.236918
  0C   2py       -0.000000  0.072187 -0.736881  0.000000 -0.236918 -1.073218
  1O   1s        -0.012679  0.000000  0.000000  0.093098  0.000000 -0.000000
  1O   2s         0.040649 -0.000000 -0.000000 -0.132425  0.000000  0.000000
  1O   1pz       -0.277420 -0.000000  0.000000  0.095625 -0.000000 -0.000000
  1O   1px        0.000000  0.359871  0.035254  0.000000 -0.038220  0.008437
  1O   1py        0.000000 -0.035254  0.359871  0.000000  0.008437  0.038220
  1O   3s         0.058706  0.000000 -0.000000 -2.165632 -0.000000 -0.000000
  1O   2pz       -0.162481 -0.000000  0.000000  0.794101  0.000000 -0.000000
  1O   2px        0.000000  0.495523  0.048543  0.000000 -0.040233  0.008882
  1O   2py        0.000000 -0.048543  0.495523  0.000000  0.008882  0.040233
                     12        13        14        15        16        17   
                   0.77192   1.01132   1.20601   1.20601   1.21249   1.84293
                   0.00000   0.00000   0.00000   0.00000   0.00000   0.00000
                  --------  --------  --------  --------  --------  --------
  0C   1s        -0.066458 -0.005114  0.000000 -0.000000 -0.078585 -0.063405
  0C   2s         1.330554  1.220723 -0.000000  0.000000  0.268266 -0.276602
  0C   1pz       -0.606304  0.912745 -0.000000  0.000000  0.711526 -0.231964
  0C   1px        0.000000  0.000000 -0.032178 -0.092767  0.000000 -0.000000
  0C   1py        0.000000  0.000000 -0.092767  0.032178 -0.000000 -0.000000
  0C   3s        -1.619226  0.127034  0.000000 -0.000000 -0.226026 -2.428233
  0C   2pz        0.401856 -0.162758  0.000000 -0.000000 -0.282991 -1.522608
  0C   2px       -0.000000 -0.000000  0.178343  0.514148 -0.000000  0.000000
  0C   2py       -0.000000 -0.000000  0.514148 -0.178343  0.000000 -0.000000
  1O   1s        -0.015160  0.082270 -0.000000  0.000000  0.005777  0.037294
  1O   2s         0.065406 -0.267074 -0.000000  0.000000  0.108973 -1.897527
  1O   1pz        0.108346 -0.106219 -0.000000  0.000000  1.012187  0.227135
  1O   1px       -0.000000  0.000000  0.316402  0.912157 -0.000000  0.000000
  1O   1py        0.000000  0.000000  0.912157 -0.316402  0.000000  0.000000
  1O   3s         0.282454 -0.588820  0.000000 -0.000000 -0.241134  4.304341
  1O   2pz       -0.285528  1.463106  0.000000 -0.000000 -0.650737 -1.575371
  1O   2px       -0.000000 -0.000000 -0.418052 -1.205208  0.000000 -0.000000
  1O   2py        0.000000 -0.000000 -1.205208  0.418052 -0.000000 -0.000000



                    ********************************
                    * MULLIKEN POPULATION ANALYSIS *
                    ********************************

-----------------------
MULLIKEN ATOMIC CHARGES
-----------------------
   0 C :    0.346195
   1 O :   -0.346195
Sum of atomic charges:   -0.0000000

--------------------------------
MULLIKEN REDUCED ORBITAL CHARGES
--------------------------------
  0 C s       :     3.801306  s :     3.801306
      pz      :     0.914972  p :     1.852499
      px      :     0.468763
      py      :     0.468763

  1 O s       :     3.896674  s :     3.896674
      pz      :     1.387048  p :     4.449521
      px      :     1.531237
      py      :     1.531237



                     *******************************
                     * LOEWDIN POPULATION ANALYSIS *
                     *******************************

----------------------
LOEWDIN ATOMIC CHARGES
----------------------
   0 C :    0.162892
   1 O :   -0.162892

-------------------------------
LOEWDIN REDUCED ORBITAL CHARGES
-------------------------------
  0 C s       :     3.598889  s :     3.598889
      pz      :     1.217450  p :     2.238219
      px      :     0.510384
      py      :     0.510384

  1 O s       :     3.623236  s :     3.623236
      pz      :     1.560425  p :     4.539657
      px      :     1.489616
      py      :     1.489616



                      *****************************
                      * MAYER POPULATION ANALYSIS *
                      *****************************

  NA   - Mulliken gross atomic population
  ZA   - Total nuclear charge
  QA   - Mulliken gross atomic charge
  VA   - Mayer's total valence
  BVA  - Mayer's bonded valence
  FA   - Mayer's free valence

  ATOM       NA         ZA         QA         VA         BVA        FA
  0 C      5.6538     6.0000     0.3462     2.1654     2.1654     0.0000
  1 O      8.3462     8.0000    -0.3462     2.1654     2.1654    -0.0000

  Mayer bond orders larger than 0.100000
B(  0-C ,  1-O ) :   2.1654 

-------
TIMINGS
-------

Total SCF time: 0 days 0 hours 0 min 0 sec 

Total time                  ....       0.017 sec
Sum of individual times     ....       0.015 sec  ( 92.1%)

SCF preparation             ....       0.007 sec  ( 42.4%)
Fock matrix formation       ....       0.006 sec  ( 33.0%)
  Startup                   ....       0.000 sec  (  5.1% of F)
  Coulomb+Exchange Fock     ....       0.005 sec  ( 83.6% of F)
Diagonalization             ....       0.000 sec  (  0.0%)
Density matrix formation    ....       0.000 sec  (  2.3%)
Total Energy calculation    ....       0.000 sec  (  0.7%)
Population analysis         ....       0.001 sec  (  6.4%)
Orbital Transformation      ....       0.000 sec  (  1.7%)
Orbital Orthonormalization  ....       0.000 sec  (  0.0%)
DIIS solution               ....       0.000 sec  (  2.3%)
SOSCF solution              ....       0.001 sec  (  3.3%)
Finished LeanSCF after   0.0 sec

Maximum memory used throughout the entire LEANSCF-calculation: 5.2 MB

-------------------------   --------------------
FINAL SINGLE POINT ENERGY      -112.667204558586
-------------------------   --------------------


------------------------------------------------------------------------------
                              ORCA PROPERTY CALCULATIONS
------------------------------------------------------------------------------

GBWName                                 ... orca_test_co_6-31G.gbw
Number of atoms                         ...      2
Number of basis functions               ...     18
Max core memory                         ...   1024 MB

Electric properties:
Dipole moment                           ... YES
Quadrupole moment                       ...  NO
Static polarizability (Dipole/Dipole)   ...  NO
Static polarizability (Dipole/Quad.)    ...  NO
Static polarizability (Quad./Quad.)     ...  NO
Static polarizability (Velocity)        ...  NO

Atomic electric properties:
Dipole moment                           ...  NO
Quadrupole moment                       ...  NO
Static polarizability                   ...  NO

Choice of electric origin               ... Center of mass
Position of electric origin             ...     0.000000     0.000000     1.217553

General magnetic properties:
Magnetizability                         ...  NO

EPR properties:
g-Tensor (aka g-matrix)                 ...  NO
Zero-Field splitting spin-orbit         ...  NO
Zero-field splitting spin-spin          ...  NO
Hyperfine couplings                     ...  NO (   0 nuclei)
Quadrupole couplings                    ...  NO (   0 nuclei)
Contact density                         ...  NO (   0 nuclei)

NMR properties:
Chemical shifts                         ...  NO (   0 nuclei)
Spin-rotation constants                 ...  NO (   0 nuclei)
Spin-spin couplings                     ...  NO (   0 nuclei,    0 pairs)

Choice of magnetic origin               ... GIAO
Position of magnetic origin             ...     0.000000     0.000000     0.000000

Properties with geometric perturbations:
SCF Hessian                             ...  NO
IR spectrum                             ...  NO
VCD spectrum                            ...  NO
X-ray spectroscopy properties:
SCF XES/XAS/RIXS spectra                ...  NO


-------------
DIPOLE MOMENT
-------------

Method             : SCF
Type of density    : Electron Density
Multiplicity       :   1
Irrep              :   0
Energy             :  -112.6672045585856381 Eh
Relativity type    : 
Basis              : AO
                                X                 Y                 Z
Electronic contribution:      0.000000000      -0.000000000      -0.227413537
Nuclear contribution   :      0.000000000       0.000000000       0.007153568
                        -----------------------------------------
Total Dipole Moment    :      0.000000000      -0.000000000      -0.220259969
                        -----------------------------------------
Magnitude (a.u.)       :      0.220259969
Magnitude (Debye)      :      0.559856349



--------------------
Rotational spectrum 
--------------------
 
Rotational constants in cm-1:             0.000000             1.931167             1.931167 
Rotational constants in MHz :             0.000000         57894.926659         57894.926659 

Dipole components along the rotational axes: 
x,y,z [a.u.] :    -0.220260    -0.000000     0.000000 
x,y,z [Debye]:    -0.559856    -0.000000     0.000000 

 

Dipole moment calculation done in   0.0 sec 

Maximum memory used throughout the entire PROP-calculation: 1.0 MB

--------------------------------
SUGGESTED CITATIONS FOR THIS RUN
--------------------------------

Below you find a list of papers that are relevant to this ORCA run
We neither can nor want to force you to cite these papers, but we appreciate if you do
You receive ORCA, which is the product of decades of hard work by many enthusiastic individuals, for free
The only thing we kindly ask in return is that you cite our papers,
We deeply appreciate it, if you show your appreciation for ORCA by not just citing the generic ORCA reference.

Please note that relegating all ORCA citations to the supporting information does *not* help us.
SI sections are not indexed - citations you put there will not count into any citation statistics
But we need these citations in order to attract the funding resources that allow us to do what we are doing

Therefore, if you are a happy ORCA user, please consider citing a few of the papers listed below in the main body of your paper

In addition to the list printed below, the program has created the file orca_test_co_6-31G.bibtex that contains the list in bibtex format
You can import this file easily into all common literature databanks and citation aid programs


List of essential papers. We consider these as the minimum necessary citations

  1. Neese,F.
     Software update: the ORCA program system, version 5.0
     WIRES Comput. Molec. Sci., 2022 12(1)e1606
     doi.org/10.1002/wcms.1606

List of papers to cite with high priority. The work reported in these papers was absolutely
necessary for this run to complete.
Our perspective: the developers of density functionals and basis sets usually get cited in chemistry papers
Good! But without the algorithms to do something with them, the functionals or basis sets would not do anything.
Hence, in our opinion, the algorithm design and method developments papers are equally worthy of getting cited

  1. Neese,F.
     The SHARK Integral Generation and Digestion System
     J. Comp. Chem., 2022  1-16
     doi.org/10.1002/jcc.26942

List of suggested additional citations. These are papers that are important in the 'surrounding' of 
of this run, or papers that preceded the highly important papers. If you like your results we are grateful for a citation.

  1. Neese,F.
     The ORCA program system
     WIRES Comput. Molec. Sci., 2012 2(1)73-78
     doi.org/10.1002/wcms.81
  2. Neese,F.
     Software update: the ORCA program system, version 4.0
     WIRES Comput. Molec. Sci., 2018 8(1)1-6
     doi.org/10.1002/wcms.1327
  3. Neese,F.; Wennmohs,F.; Becker,U.; Riplinger,C.
     The ORCA quantum chemistry program package
     J. Chem. Phys., 2020 152 Art. No. L224108
     doi.org/10.1063/5.0004608

List of optional additional citations

  1. Neese,F.
     Approximate second-order SCF convergence for spin unrestricted wavefunctions
     Chem. Phys. Lett., 2000 325(1-3)93-98
     doi.org/10.1016/s0009-2614(00)00662-x

Timings for individual modules:

Sum of individual times          ...        0.253 sec (=   0.004 min)
Startup calculation              ...        0.076 sec (=   0.001 min)  30.2 %
SCF iterations                   ...        0.122 sec (=   0.002 min)  48.1 %
Property calculations            ...        0.055 sec (=   0.001 min)  21.7 %
                             ****ORCA TERMINATED NORMALLY****
TOTAL RUN TIME: 0 days 0 hours 0 minutes 0 seconds 315 msec
