           3
Step=      10  T(kJ/mol)=        1.9682954967  V(kJ/mol)=       -2.9058266269  E(kJ/mol)=       -0.9375311302
Ar   -1.746837   -1.239209    0.000000
Ar    2.160535   -1.049734    0.000000
Ar    0.086302    2.288943    0.000000
           3
Step=      20  T(kJ/mol)=        1.0288635065  V(kJ/mol)=       -1.9639833643  E(kJ/mol)=       -0.9351198578
Ar   -2.024401   -1.515827    0.000000
Ar    2.325560   -1.087723    0.000000
Ar    0.198841    2.603549    0.000000
           3
Step=      30  T(kJ/mol)=        0.5426975503  V(kJ/mol)=       -1.4779913363  E(kJ/mol)=       -0.9352937860
Ar   -2.211377   -1.739062    0.000000
Ar    2.391189   -1.072856    0.000000
Ar    0.320188    2.811918    0.000000
           3
Step=      40  T(kJ/mol)=        0.3905860273  V(kJ/mol)=       -1.3259525317  E(kJ/mol)=       -0.9353665044
Ar   -2.328257   -1.927020    0.000000
Ar    2.370391   -1.006695    0.000000
Ar    0.457866    2.933715    0.000000
           3
Step=      50  T(kJ/mol)=        0.4519212607  V(kJ/mol)=       -1.3873220613  E(kJ/mol)=       -0.9354008006
Ar   -2.387748   -2.088458    0.000000
Ar    2.272562   -0.888931    0.000000
Ar    0.615186    2.977388    0.000000
           3
Step=      60  T(kJ/mol)=        0.6412103839  V(kJ/mol)=       -1.5769969119  E(kJ/mol)=       -0.9357865281
Ar   -2.394301   -2.225787    0.000000
Ar    2.102549   -0.721112    0.000000
Ar    0.791752    2.946898    0.000000
           3
Step=      70  T(kJ/mol)=        0.4962297561  V(kJ/mol)=       -1.4315169496  E(kJ/mol)=       -0.9352871935
Ar   -2.346827   -2.337108    0.000000
Ar    1.880237   -0.562389    0.000000
Ar    0.966591    2.899497    0.000000
           3
Step=      80  T(kJ/mol)=        0.8420306393  V(kJ/mol)=       -1.7782120715  E(kJ/mol)=       -0.9361814322
Ar   -2.239869   -2.417341    0.000000
Ar    1.650213   -0.613504    0.000000
Ar    1.089656    3.030844    0.000000
           3
Step=      90  T(kJ/mol)=        1.0371381963  V(kJ/mol)=       -1.9736630366  E(kJ/mol)=       -0.9365248403
Ar   -2.069076   -2.463051    0.000000
Ar    1.381563   -0.798292    0.000000
Ar    1.187513    3.261343    0.000000
           3
Step=     100  T(kJ/mol)=        0.2620640893  V(kJ/mol)=       -1.1955993989  E(kJ/mol)=       -0.9335353096
Ar   -1.933645   -2.522879    0.000000
Ar    1.149980   -0.911800    0.000000
Ar    1.283665    3.434679    0.000000
           3
Step=     110  T(kJ/mol)=        0.8153965964  V(kJ/mol)=       -1.7519410347  E(kJ/mol)=       -0.9365444383
Ar   -2.081125   -2.727578    0.000000
Ar    1.205545   -0.807095    0.000000
Ar    1.375581    3.534673    0.000000
           3
Step=     120  T(kJ/mol)=        0.6746201524  V(kJ/mol)=       -1.6100089373  E(kJ/mol)=       -0.9353887849
Ar   -2.278213   -2.956132    0.000000
Ar    1.315235   -0.606525    0.000000
Ar    1.462978    3.562657    0.000000
           3
Step=     130  T(kJ/mol)=        0.5704290260  V(kJ/mol)=       -1.5060600264  E(kJ/mol)=       -0.9356310004
Ar   -2.420202   -3.147100    0.000000
Ar    1.373622   -0.374501    0.000000
Ar    1.546580    3.521601    0.000000
           3
Step=     140  T(kJ/mol)=        0.3025403484  V(kJ/mol)=       -1.2380293040  E(kJ/mol)=       -0.9354889556
Ar   -2.518355   -3.305172    0.000000
Ar    1.389732   -0.157268    0.000000
Ar    1.628623    3.462440    0.000000
           3
Step=     150  T(kJ/mol)=        0.3027091925  V(kJ/mol)=       -1.2385138762  E(kJ/mol)=       -0.9358046837
Ar   -2.585630   -3.437763    0.000000
Ar    1.365769   -0.106482    0.000000
Ar    1.719861    3.544245    0.000000
           3
Step=     160  T(kJ/mol)=        0.3392646397  V(kJ/mol)=       -1.2748655951  E(kJ/mol)=       -0.9356009554
Ar   -2.627507   -3.548398    0.000000
Ar    1.307341   -0.188050    0.000000
Ar    1.820166    3.736448    0.000000
           3
Step=     170  T(kJ/mol)=        0.1926345233  V(kJ/mol)=       -1.1280661293  E(kJ/mol)=       -0.9354316060
Ar   -2.644782   -3.637541    0.000000
Ar    1.229829   -0.255759    0.000000
Ar    1.914953    3.893300    0.000000
           3
Step=     180  T(kJ/mol)=        0.1082479384  V(kJ/mol)=       -1.0436766705  E(kJ/mol)=       -0.9354287321
Ar   -2.636990   -3.704401    0.000000
Ar    1.138904   -0.277512    0.000000
Ar    1.998086    3.981912    0.000000
           3
Step=     190  T(kJ/mol)=        0.1029846092  V(kJ/mol)=       -1.0384176351  E(kJ/mol)=       -0.9354330259
Ar   -2.603398   -3.747494    0.000000
Ar    1.036166   -0.255070    0.000000
Ar    2.067232    4.002565    0.000000
           3
Step=     200  T(kJ/mol)=        0.1710135788  V(kJ/mol)=       -1.1064447659  E(kJ/mol)=       -0.9354311871
Ar   -2.543117   -3.764656    0.000000
Ar    0.923084   -0.192153    0.000000
Ar    2.120033    3.956809    0.000000
           3
Step=     210  T(kJ/mol)=        0.3134936877  V(kJ/mol)=       -1.2489413893  E(kJ/mol)=       -0.9354477016
Ar   -2.455134   -3.752952    0.000000
Ar    0.801916   -0.091017    0.000000
Ar    2.153218    3.843969    0.000000
           3
Step=     220  T(kJ/mol)=        0.4950392977  V(kJ/mol)=       -1.4306521715  E(kJ/mol)=       -0.9356128738
Ar   -2.338383   -3.708592    0.000000
Ar    0.674060    0.041336    0.000000
Ar    2.164323    3.667255    0.000000
           3
Step=     230  T(kJ/mol)=        0.5341671922  V(kJ/mol)=       -1.4696476693  E(kJ/mol)=       -0.9354804771
Ar   -2.191630   -3.626568    0.000000
Ar    0.526361    0.162523    0.000000
Ar    2.165270    3.464045    0.000000
           3
Step=     240  T(kJ/mol)=        0.7523343954  V(kJ/mol)=       -1.6878304104  E(kJ/mol)=       -0.9354960151
Ar   -2.012205   -3.498639    0.000000
Ar    0.307460    0.163106    0.000000
Ar    2.204746    3.335533    0.000000
           3
Step=     250  T(kJ/mol)=        1.0546262587  V(kJ/mol)=       -1.9915037047  E(kJ/mol)=       -0.9368774460
Ar   -1.797457   -3.314843    0.000000
Ar    0.015462    0.041578    0.000000
Ar    2.281995    3.273265    0.000000
           3
Step=     260  T(kJ/mol)=        0.3765699414  V(kJ/mol)=       -1.3097992605  E(kJ/mol)=       -0.9332293190
Ar   -1.606446   -3.184591    0.000000
Ar   -0.231558    0.002730    0.000000
Ar    2.338004    3.181861    0.000000
           3
Step=     270  T(kJ/mol)=        1.0864922002  V(kJ/mol)=       -2.0233543636  E(kJ/mol)=       -0.9368621634
Ar   -1.545792   -3.354938    0.000000
Ar   -0.309557    0.312939    0.000000
Ar    2.355349    3.041999    0.000000
           3
Step=     280  T(kJ/mol)=        0.6224465518  V(kJ/mol)=       -1.5573089246  E(kJ/mol)=       -0.9348623729
Ar   -1.496302   -3.549977    0.000000
Ar   -0.393083    0.635896    0.000000
Ar    2.389384    2.914081    0.000000
           3
Step=     290  T(kJ/mol)=        0.6706407957  V(kJ/mol)=       -1.6065835433  E(kJ/mol)=       -0.9359427476
Ar   -1.428609   -3.678511    0.000000
Ar   -0.618480    0.792369    0.000000
Ar    2.547090    2.886143    0.000000
           3
Step=     300  T(kJ/mol)=        0.4790652180  V(kJ/mol)=       -1.4145383277  E(kJ/mol)=       -0.9354731097
Ar   -1.348791   -3.745386    0.000000
Ar   -0.879511    0.869609    0.000000
Ar    2.728302    2.875777    0.000000
           3
Step=     310  T(kJ/mol)=        0.2790521136  V(kJ/mol)=       -1.2144637079  E(kJ/mol)=       -0.9354115944
Ar   -1.262103   -3.755011    0.000000
Ar   -1.092215    0.921286    0.000000
Ar    2.854318    2.833725    0.000000
           3
Step=     320  T(kJ/mol)=        0.1924500279  V(kJ/mol)=       -1.1278651800  E(kJ/mol)=       -0.9354151522
Ar   -1.172253   -3.709146    0.000000
Ar   -1.246790    0.948605    0.000000
Ar    2.919043    2.760541    0.000000
           3
Step=     330  T(kJ/mol)=        0.2188791825  V(kJ/mol)=       -1.1542839732  E(kJ/mol)=       -0.9354047907
Ar   -1.081966   -3.606419    0.000000
Ar   -1.344899    0.945389    0.000000
Ar    2.926865    2.661030    0.000000
           3
Step=     340  T(kJ/mol)=        0.3759088249  V(kJ/mol)=       -1.3112857629  E(kJ/mol)=       -0.9353769380
Ar   -0.993540   -3.441462    0.000000
Ar   -1.386025    0.903990    0.000000
Ar    2.879565    2.537473    0.000000
           3
Step=     350  T(kJ/mol)=        0.6973234382  V(kJ/mol)=       -1.6328286672  E(kJ/mol)=       -0.9355052290
Ar   -0.908957   -3.206249    0.000000
Ar   -1.365572    0.817028    0.000000
Ar    2.774530    2.389222    0.000000
           3
Step=     360  T(kJ/mol)=        0.9070363018  V(kJ/mol)=       -1.8435446419  E(kJ/mol)=       -0.9365083401
Ar   -0.826161   -2.918462    0.000000
Ar   -1.278698    0.705954    0.000000
Ar    2.604859    2.212508    0.000000
           3
Step=     370  T(kJ/mol)=        0.9282025904  V(kJ/mol)=       -1.8653386473  E(kJ/mol)=       -0.9371360569
Ar   -0.719113   -2.768881    0.000000
Ar   -1.152407    0.764195    0.000000
Ar    2.371520    2.004685    0.000000
           3
Step=     380  T(kJ/mol)=        0.7168434905  V(kJ/mol)=       -1.6513535288  E(kJ/mol)=       -0.9345100383
Ar   -0.574319   -2.833095    0.000000
Ar   -1.158268    1.020561    0.000000
Ar    2.232587    1.812534    0.000000
           3
Step=     390  T(kJ/mol)=        1.1059180158  V(kJ/mol)=       -2.0420030892  E(kJ/mol)=       -0.9360850734
Ar   -0.420111   -2.870012    0.000000
Ar   -1.477870    1.191836    0.000000
Ar    2.397981    1.678177    0.000000
           3
Step=     400  T(kJ/mol)=        0.7447916848  V(kJ/mol)=       -1.6801098414  E(kJ/mol)=       -0.9353181566
Ar   -0.269139   -2.819882    0.000000
Ar   -1.789301    1.293770    0.000000
Ar    2.558440    1.526113    0.000000
           3
Step=     410  T(kJ/mol)=        0.6410766647  V(kJ/mol)=       -1.5763722579  E(kJ/mol)=       -0.9352955931
Ar   -0.124070   -2.679973    0.000000
Ar   -2.011836    1.336124    0.000000
Ar    2.635906    1.343849    0.000000
           3
Step=     420  T(kJ/mol)=        0.8817880265  V(kJ/mol)=       -1.8170282754  E(kJ/mol)=       -0.9352402490
Ar    0.018332   -2.443996    0.000000
Ar   -2.150799    1.319277    0.000000
Ar    2.632466    1.124719    0.000000
           3
Step=     430  T(kJ/mol)=        1.3991089311  V(kJ/mol)=       -2.3368330063  E(kJ/mol)=       -0.9377240751
Ar    0.163024   -2.099265    0.000000
Ar   -2.206919    1.241362    0.000000
Ar    2.543895    0.857903    0.000000
           3
Step=     440  T(kJ/mol)=        0.4101391361  V(kJ/mol)=       -1.3427550338  E(kJ/mol)=       -0.9326158977
Ar    0.192389   -1.800241    0.000000
Ar   -2.180663    1.111907    0.000000
Ar    2.488274    0.688333    0.000000
           3
Step=     450  T(kJ/mol)=        1.2023723470  V(kJ/mol)=       -2.1380621072  E(kJ/mol)=       -0.9356897602
Ar   -0.088964   -1.920858    0.000000
Ar   -2.135741    1.020498    0.000000
Ar    2.724706    0.900361    0.000000
           3
Step=     460  T(kJ/mol)=        0.9250772944  V(kJ/mol)=       -1.8607743399  E(kJ/mol)=       -0.9356970455
Ar   -0.274159   -2.202879    0.000000
Ar   -2.151835    1.078593    0.000000
Ar    2.925994    1.124286    0.000000
           3
Step=     470  T(kJ/mol)=        0.5779468319  V(kJ/mol)=       -1.5133318546  E(kJ/mol)=       -0.9353850227
Ar   -0.398765   -2.477683    0.000000
Ar   -2.154102    1.170081    0.000000
Ar    3.052866    1.307602    0.000000
           3
Step=     480  T(kJ/mol)=        0.3645699797  V(kJ/mol)=       -1.2999510285  E(kJ/mol)=       -0.9353810488
Ar   -0.524029   -2.676844    0.000000
Ar   -2.101908    1.212043    0.000000
Ar    3.125937    1.464801    0.000000
           3
Step=     490  T(kJ/mol)=        0.3262222011  V(kJ/mol)=       -1.2616198202  E(kJ/mol)=       -0.9353976190
Ar   -0.660961   -2.795399    0.000000
Ar   -1.993981    1.191152    0.000000
Ar    3.154941    1.604248    0.000000
           3
Step=     500  T(kJ/mol)=        0.4382703956  V(kJ/mol)=       -1.3737044040  E(kJ/mol)=       -0.9354340083
Ar   -0.809889   -2.836312    0.000000
Ar   -1.831998    1.106837    0.000000
Ar    3.141887    1.729475    0.000000
           3
Step=     510  T(kJ/mol)=        0.6236317211  V(kJ/mol)=       -1.5593082997  E(kJ/mol)=       -0.9356765787
Ar   -0.966182   -2.810110    0.000000
Ar   -1.616950    0.969379    0.000000
Ar    3.083132    1.840731    0.000000
           3
Step=     520  T(kJ/mol)=        0.6784072994  V(kJ/mol)=       -1.6135691364  E(kJ/mol)=       -0.9351618370
Ar   -1.116522   -2.781848    0.000000
Ar   -1.353015    0.846810    0.000000
Ar    2.969537    1.935037    0.000000
           3
Step=     530  T(kJ/mol)=        1.0819495995  V(kJ/mol)=       -2.0181641691  E(kJ/mol)=       -0.9362145696
Ar   -1.253733   -2.871283    0.000000
Ar   -1.034637    0.864618    0.000000
Ar    2.788370    2.006666    0.000000
           3
Step=     540  T(kJ/mol)=        0.5079795004  V(kJ/mol)=       -1.4435784032  E(kJ/mol)=       -0.9355989028
Ar   -1.385411   -3.007888    0.000000
Ar   -0.702346    0.939296    0.000000
Ar    2.587757    2.068592    0.000000
           3
Step=     550  T(kJ/mol)=        0.9987578484  V(kJ/mol)=       -1.9365987788  E(kJ/mol)=       -0.9378409304
Ar   -1.504135   -3.092024    0.000000
Ar   -0.709678    0.850513    0.000000
Ar    2.713813    2.241511    0.000000
           3
Step=     560  T(kJ/mol)=        0.8704909425  V(kJ/mol)=       -1.8060329128  E(kJ/mol)=       -0.9355419703
Ar   -1.608903   -3.118867    0.000000
Ar   -0.874721    0.653739    0.000000
Ar    2.983625    2.465128    0.000000
           3
Step=     570  T(kJ/mol)=        0.5231575365  V(kJ/mol)=       -1.4584837570  E(kJ/mol)=       -0.9353262204
Ar   -1.710644   -3.139168    0.000000
Ar   -0.985935    0.478970    0.000000
Ar    3.196580    2.660198    0.000000
           3
Step=     580  T(kJ/mol)=        0.4104287106  V(kJ/mol)=       -1.3459453241  E(kJ/mol)=       -0.9355166135
Ar   -1.826699   -3.236341    0.000000
Ar   -1.034832    0.406981    0.000000
Ar    3.361532    2.829360    0.000000
           3
Step=     590  T(kJ/mol)=        0.3520638986  V(kJ/mol)=       -1.2875881804  E(kJ/mol)=       -0.9355242818
Ar   -1.953181   -3.386791    0.000000
Ar   -1.038809    0.407933    0.000000
Ar    3.491991    2.978858    0.000000
           3
Step=     600  T(kJ/mol)=        0.2370530150  V(kJ/mol)=       -1.1724922637  E(kJ/mol)=       -0.9354392487
Ar   -2.072409   -3.510660    0.000000
Ar   -1.022700    0.398321    0.000000
Ar    3.595109    3.112340    0.000000
           3
Step=     610  T(kJ/mol)=        0.1726904238  V(kJ/mol)=       -1.1081186069  E(kJ/mol)=       -0.9354281831
Ar   -2.175570   -3.576616    0.000000
Ar   -0.999869    0.344560    0.000000
Ar    3.675439    3.232056    0.000000
           3
Step=     620  T(kJ/mol)=        0.1816353166  V(kJ/mol)=       -1.1170852750  E(kJ/mol)=       -0.9354499584
Ar   -2.259626   -3.580034    0.000000
Ar   -0.976976    0.240379    0.000000
Ar    3.736602    3.339655    0.000000
           3
Step=     630  T(kJ/mol)=        0.2223029039  V(kJ/mol)=       -1.1578666382  E(kJ/mol)=       -0.9355637343
Ar   -2.325307   -3.529290    0.000000
Ar   -0.956478    0.092758    0.000000
Ar    3.781786    3.436533    0.000000
           3
Step=     640  T(kJ/mol)=        0.1629004578  V(kJ/mol)=       -1.0983930900  E(kJ/mol)=       -0.9354926322
Ar   -2.385674   -3.463788    0.000000
Ar   -0.928127   -0.060165    0.000000
Ar    3.813801    3.523954    0.000000
           3
Step=     650  T(kJ/mol)=        0.1514000477  V(kJ/mol)=       -1.0868789413  E(kJ/mol)=       -0.9354788936
Ar   -2.475126   -3.465050    0.000000
Ar   -0.859625   -0.137834    0.000000
Ar    3.834751    3.602884    0.000000
           3
Step=     660  T(kJ/mol)=        0.1971871817  V(kJ/mol)=       -1.1327603131  E(kJ/mol)=       -0.9355731314
Ar   -2.596845   -3.534527    0.000000
Ar   -0.748697   -0.139085    0.000000
Ar    3.845543    3.673612    0.000000
           3
Step=     670  T(kJ/mol)=        0.1345538228  V(kJ/mol)=       -1.0700109321  E(kJ/mol)=       -0.9354571093
Ar   -2.711708   -3.592771    0.000000
Ar   -0.634408   -0.142993    0.000000
Ar    3.846116    3.735764    0.000000
           3
Step=     680  T(kJ/mol)=        0.0934157708  V(kJ/mol)=       -1.0288508740  E(kJ/mol)=       -0.9354351031
Ar   -2.797280   -3.602770    0.000000
Ar   -0.538953   -0.186017    0.000000
Ar    3.836233    3.788787    0.000000
           3
Step=     690  T(kJ/mol)=        0.1161509984  V(kJ/mol)=       -1.0515974474  E(kJ/mol)=       -0.9354464490
Ar   -2.846840   -3.558411    0.000000
Ar   -0.469129   -0.273910    0.000000
Ar    3.815968    3.832320    0.000000
           3
Step=     700  T(kJ/mol)=        0.1797617190  V(kJ/mol)=       -1.1152933161  E(kJ/mol)=       -0.9355315971
Ar   -2.860918   -3.464981    0.000000
Ar   -0.424904   -0.401366    0.000000
Ar    3.785821    3.866346    0.000000
           3
Step=     710  T(kJ/mol)=        0.1674468663  V(kJ/mol)=       -1.1030185286  E(kJ/mol)=       -0.9355716623
Ar   -2.856584   -3.347762    0.000000
Ar   -0.390035   -0.543415    0.000000
Ar    3.746619    3.891177    0.000000
           3
Step=     720  T(kJ/mol)=        0.1271152922  V(kJ/mol)=       -1.0625013038  E(kJ/mol)=       -0.9353860116
Ar   -2.887266   -3.269097    0.000000
Ar   -0.311893   -0.638056    0.000000
Ar    3.699159    3.907153    0.000000
           3
Step=     730  T(kJ/mol)=        0.2032915898  V(kJ/mol)=       -1.1388918559  E(kJ/mol)=       -0.9356002661
Ar   -2.978272   -3.252629    0.000000
Ar   -0.165348   -0.661351    0.000000
Ar    3.643620    3.913980    0.000000
           3
Step=     740  T(kJ/mol)=        0.1662935958  V(kJ/mol)=       -1.1017649078  E(kJ/mol)=       -0.9354713120
Ar   -3.071876   -3.239476    0.000000
Ar   -0.007499   -0.670892    0.000000
Ar    3.579375    3.910368    0.000000
           3
Step=     750  T(kJ/mol)=        0.1274118833  V(kJ/mol)=       -1.0628477077  E(kJ/mol)=       -0.9354358244
Ar   -3.126038   -3.193434    0.000000
Ar    0.120572   -0.701025    0.000000
Ar    3.505467    3.894458    0.000000
           3
Step=     760  T(kJ/mol)=        0.1497132403  V(kJ/mol)=       -1.0851521628  E(kJ/mol)=       -0.9354389226
Ar   -3.128700   -3.107780    0.000000
Ar    0.207643   -0.756594    0.000000
Ar    3.421057    3.864374    0.000000
           3
Step=     770  T(kJ/mol)=        0.2270717818  V(kJ/mol)=       -1.1625624581  E(kJ/mol)=       -0.9354906763
Ar   -3.079249   -2.985220    0.000000
Ar    0.253675   -0.833275    0.000000
Ar    3.325574    3.818496    0.000000
           3
Step=     780  T(kJ/mol)=        0.2765763078  V(kJ/mol)=       -1.2121789162  E(kJ/mol)=       -0.9356026084
Ar   -2.992317   -2.838000    0.000000
Ar    0.273658   -0.917492    0.000000
Ar    3.218659    3.755492    0.000000
           3
Step=     790  T(kJ/mol)=        0.2406003887  V(kJ/mol)=       -1.1759353112  E(kJ/mol)=       -0.9353349225
Ar   -2.923806   -2.700605    0.000000
Ar    0.323932   -0.973300    0.000000
Ar    3.099874    3.673906    0.000000
           3
Step=     800  T(kJ/mol)=        0.3656370326  V(kJ/mol)=       -1.3012110166  E(kJ/mol)=       -0.9355739839
Ar   -2.932770   -2.604028    0.000000
Ar    0.464786   -0.966655    0.000000
Ar    2.967984    3.570683    0.000000
           3
Step=     810  T(kJ/mol)=        0.4579192578  V(kJ/mol)=       -1.3933733340  E(kJ/mol)=       -0.9354540762
Ar   -2.968291   -2.520475    0.000000
Ar    0.648206   -0.918387    0.000000
Ar    2.820085    3.438862    0.000000
           3
Step=     820  T(kJ/mol)=        0.5771804066  V(kJ/mol)=       -1.5125442273  E(kJ/mol)=       -0.9353638206
Ar   -2.965070   -2.419381    0.000000
Ar    0.813622   -0.846740    0.000000
Ar    2.651448    3.266121    0.000000
           3
Step=     830  T(kJ/mol)=        0.8436358026  V(kJ/mol)=       -1.7792222191  E(kJ/mol)=       -0.9355864165
Ar   -2.901344   -2.292316    0.000000
Ar    0.944764   -0.743690    0.000000
Ar    2.456581    3.036006    0.000000
           3
Step=     840  T(kJ/mol)=        0.8077251667  V(kJ/mol)=       -1.7445962747  E(kJ/mol)=       -0.9368711080
Ar   -2.772550   -2.137868    0.000000
Ar    1.029679   -0.625175    0.000000
Ar    2.242871    2.763043    0.000000
           3
Step=     850  T(kJ/mol)=        0.8984653112  V(kJ/mol)=       -1.8362150848  E(kJ/mol)=       -0.9377497737
Ar   -2.584016   -1.957940    0.000000
Ar    0.990196   -0.724387    0.000000
Ar    2.093820    2.682327    0.000000
           3
Step=     860  T(kJ/mol)=        0.5861784729  V(kJ/mol)=       -1.5201148896  E(kJ/mol)=       -0.9339364166
Ar   -2.458006   -1.791483    0.000000
Ar    0.947003   -1.018980    0.000000
Ar    2.011004    2.810463    0.000000
           3
Step=     870  T(kJ/mol)=        0.9683497092  V(kJ/mol)=       -1.9046459606  E(kJ/mol)=       -0.9362962514
Ar   -2.620229   -1.687484    0.000000
Ar    1.204704   -1.215052    0.000000
Ar    1.915525    2.902536    0.000000
           3
Step=     880  T(kJ/mol)=        0.6419394888  V(kJ/mol)=       -1.5773135142  E(kJ/mol)=       -0.9353740254
Ar   -2.805720   -1.585201    0.000000
Ar    1.502666   -1.336529    0.000000
Ar    1.803054    2.921730    0.000000
           3
Step=     890  T(kJ/mol)=        0.4433167740  V(kJ/mol)=       -1.3786849375  E(kJ/mol)=       -0.9353681634
Ar   -2.920379   -1.473582    0.000000
Ar    1.740405   -1.392011    0.000000
Ar    1.679974    2.865594    0.000000
           3
Step=     900  T(kJ/mol)=        0.4418588348  V(kJ/mol)=       -1.3772653764  E(kJ/mol)=       -0.9354065416
Ar   -2.973813   -1.354759    0.000000
Ar    1.922449   -1.378573    0.000000
Ar    1.551364    2.733332    0.000000
           3
Step=     910  T(kJ/mol)=        0.5590569655  V(kJ/mol)=       -1.4947217854  E(kJ/mol)=       -0.9356648199
Ar   -2.975508   -1.228473    0.000000
Ar    2.055554   -1.300362    0.000000
Ar    1.419953    2.528835    0.000000
           3
Step=     920  T(kJ/mol)=        0.4800254107  V(kJ/mol)=       -1.4154704122  E(kJ/mol)=       -0.9354450015
Ar   -2.927634   -1.092243    0.000000
Ar    2.151130   -1.211337    0.000000
Ar    1.276504    2.303580    0.000000
           3
Step=     930  T(kJ/mol)=        0.6604887250  V(kJ/mol)=       -1.5962235374  E(kJ/mol)=       -0.9357348124
Ar   -2.825464   -0.941412    0.000000
Ar    2.249524   -1.265677    0.000000
Ar    1.075940    2.207089    0.000000
           3
Step=     940  T(kJ/mol)=        0.9441962903  V(kJ/mol)=       -1.8796261961  E(kJ/mol)=       -0.9354299059
Ar   -2.658666   -0.768664    0.000000
Ar    2.347625   -1.427653    0.000000
Ar    0.811041    2.196317    0.000000
           3
Step=     950  T(kJ/mol)=        1.2721546760  V(kJ/mol)=       -2.2082998454  E(kJ/mol)=       -0.9361451693
Ar   -2.411265   -0.562680    0.000000
Ar    2.396837   -1.557425    0.000000
Ar    0.514428    2.120106    0.000000
           3
Step=     960  T(kJ/mol)=        0.1845224288  V(kJ/mol)=       -1.1160256728  E(kJ/mol)=       -0.9315032440
Ar   -2.135413   -0.380218    0.000000
Ar    2.374017   -1.619572    0.000000
Ar    0.261396    1.999789    0.000000
           3
Step=     970  T(kJ/mol)=        1.4203393393  V(kJ/mol)=       -2.3579295296  E(kJ/mol)=       -0.9375901903
Ar   -2.182114   -0.584543    0.000000
Ar    2.265763   -1.607513    0.000000
Ar    0.416350    2.192056    0.000000
           3
Step=     980  T(kJ/mol)=        1.2521558977  V(kJ/mol)=       -2.1873902905  E(kJ/mol)=       -0.9352343928
Ar   -2.256277   -0.889318    0.000000
Ar    2.068755   -1.519196    0.000000
Ar    0.687522    2.408514    0.000000
           3
Step=     990  T(kJ/mol)=        1.3788705506  V(kJ/mol)=       -2.3145904594  E(kJ/mol)=       -0.9357199088
Ar   -2.223026   -1.157338    0.000000
Ar    1.783120   -1.357576    0.000000
Ar    0.939906    2.514914    0.000000
           3
Step=    1000  T(kJ/mol)=        1.1125926818  V(kJ/mol)=       -2.0491710966  E(kJ/mol)=       -0.9365784149
Ar   -2.124447   -1.394083    0.000000
Ar    1.452614   -1.154538    0.000000
Ar    1.171833    2.548621    0.000000
